LAMMPS data file via write_data, version 22 Jul 2025, timestep = 25005000, units = real

3288 atoms
3 atom types
2060 bonds
1 bond types
1030 angles
1 angle types

-26.49966657373917 26.49966657373917 xlo xhi
-8.499138776582923 8.499138776582923 ylo yhi
-19.87474993030667 19.87474993030667 zlo zhi
0 5.59180813202731 0 xy xz yz

Masses

1 15.9994
2 1.008
3 10

Pair Coeffs # lj/cut/coul/cut

1 0.155 3.165
2 0 0
3 20 1.9

Bond Coeffs # harmonic

1 529.581 1.012

Angle Coeffs # harmonic

1 37.95 113.24

Atoms # full

3627 1143 2 0.41 -24.649024069345977 -0.9081160279249794 -13.85172417559108 42 0 1
298 34 1 -0.82 -24.406938009357216 -5.050111529816181 -14.180320360134388 -2 0 0
300 34 2 0.41 -23.54271166337424 -4.522779974565129 -13.860609029116567 -2 0 0
825 209 2 0.41 -21.306200528266217 -1.577726683959595 -15.008904333398728 39 1 1
2059 621 1 -0.82 -24.91373135293092 -7.741839345434978 -13.832447866136938 -3 1 0
421 75 1 -0.82 -21.69576577918285 -6.878861879949576 -13.923618890312513 -1 0 0
3559 1121 1 -0.82 -21.888826914215617 -1.0450535135891563 -13.527922985110418 41 0 1
423 75 2 0.41 -22.673688233636035 -6.601239977442268 -13.990365280109433 -1 0 0
1991 598 2 0.41 -23.83858278673803 -4.609336104689936 -10.436812372043946 -1 0 0
3042 948 2 0.41 -22.409234172101698 -2.5910593030589464 -13.58285582641431 -1 0 0
3040 948 1 -0.82 -22.306196107489992 -3.5738841322072386 -13.207949403944946 -1 0 0
3561 1121 2 0.41 -22.814662534541213 -0.5744318198471392 -13.37487471891396 41 0 1
2899 901 1 -0.82 -22.947687166447484 -1.0942492855644463 -7.434088889567011 0 0 0
823 209 1 -0.82 -20.5636396795759 -1.6905613050531718 -15.776517770326446 39 1 1
824 209 2 0.41 -20.34095736228999 -0.8342582007849071 -16.300503663221853 39 1 1
2912 905 2 0.41 -19.63998067676897 -2.159576681396997 -14.070336061090444 -13 0 0
2082 628 2 0.41 -20.103371757858532 -8.067750420310375 -13.417002685462295 0 0 0
3291 1031 2 0.41 -18.254749332015585 -1.7674350249798794 -15.655365084617074 18 0 1
3289 1031 1 -0.82 -17.515142894888278 -1.0138482641829816 -15.737317730413093 18 0 1
1075 293 1 -0.82 -15.376753763427335 -5.143517867313906 -14.883734300509147 -8 0 0
1076 293 2 0.41 -15.989292712481552 -5.120049444882108 -14.074620611199894 -8 0 0
3356 1053 2 0.41 -15.660842749795963 -7.406926816217998 -15.540136327637033 0 1 0
1077 293 2 0.41 -14.81016721006085 -4.234908788198915 -14.827218561343813 -8 0 0
2332 712 1 -0.82 -15.149924671962454 -2.5137331242574454 -15.249818734957508 0 0 0
3355 1053 1 -0.82 -14.816424270688078 -7.962341209072685 -15.336401413591574 0 1 0
2333 712 2 0.41 -16.089393750135926 -2.125903908848433 -15.22547751173677 0 0 0
2334 712 2 0.41 -14.556033075519395 -1.7138177851886658 -15.131736948708717 0 0 0
3357 1053 2 0.41 -14.067247259899364 -7.245298163766518 -15.103061765143366 0 1 0
1328 377 2 0.41 -13.148190992922391 -3.412730115077313 -15.359881646606866 36 0 1
3588 1130 2 0.41 -13.249217606439904 -1.1113617438733048 -13.647062031985975 23 -1 1
1785 529 2 0.41 -19.220596761214995 -0.34861195402151246 -0.09979806007720882 1 -1 0
1178 327 2 0.41 -24.52742953391961 -4.717546304800701 -7.426152613823293 -1 0 0
2237 680 2 0.41 -17.196376207909744 0.38711741650645237 -0.44447438236135284 0 0 0
580 128 1 -0.82 -16.39773595860177 -5.986299360667144 -0.14500118389590355 0 0 0
2215 673 1 -0.82 -12.152337148335937 6.902602468944787 -11.358700653671454 0 -1 0
1800 534 2 0.41 -19.913788305152952 1.9246057001452943 -16.898776662938783 14 -1 1
1919 574 2 0.41 -23.3182395553293 2.112000036299321 -6.134071185738325 41 0 1
599 134 2 0.41 -23.72202157951078 6.847637475854661 -13.588849779895178 36 0 1
3523 1109 1 -0.82 -24.494633771816027 0.6393296569162921 -14.032603821199562 37 1 1
598 134 1 -0.82 -24.44245188205747 6.335927252033878 -14.060019666765465 36 0 1
2286 696 2 0.41 -22.387745902809574 5.145729738613433 -13.59226420085512 0 0 0
3524 1109 2 0.41 -23.755955658875124 1.2142426820981402 -13.590573447127515 37 1 1
1079 294 2 0.41 -24.673940740714542 4.677618294601386 -13.828677645024381 -2 0 0
2284 696 1 -0.82 -21.647812861636044 4.540425112958028 -13.369713729828314 0 0 0
3219 1007 2 0.41 -21.70378603782929 1.5860923373982292 -13.820306754069769 0 0 0
2285 696 2 0.41 -20.903009656981453 5.242651958668656 -13.175783283616578 0 0 0
2102 635 2 0.41 -20.80545855252624 3.4888170728373638 -0.36386778242061624 0 -1 0
2099 634 2 0.41 -18.39325167667721 7.563934390801004 -0.11679013861163057 0 0 0
1799 534 2 0.41 -19.628256768871186 1.4407335168786695 -15.377911916922733 14 -1 1
1798 534 1 -0.82 -19.852807769585674 1.0755612111311255 -16.34571029596868 14 -1 1
3290 1031 2 0.41 -17.948201152361367 -0.06027871109128924 -15.726736207670374 18 0 1
2205 669 2 0.41 -18.138383230490483 2.5051111675524194 -14.36763170452047 -5 -1 0
2226 676 2 0.41 -17.915309260757837 5.459947353293536 -16.499895897706153 0 -2 0
2204 669 2 0.41 -17.333630398296073 3.2616220957284465 -15.55795606165729 -5 -1 0
2203 669 1 -0.82 -17.625948850978503 2.357141376107755 -15.19492807676413 -5 -1 0
2224 676 1 -0.82 -17.41248651307226 4.820864596585864 -15.951476398884015 0 -2 0
2225 676 2 0.41 -16.62076640872469 5.315985884779529 -15.57715269645491 0 -2 0
693 165 2 0.41 -15.295014287079809 7.205483793186122 -15.42711282098603 31 0 1
691 165 1 -0.82 -15.297127496228171 6.326778207526392 -14.922315423936093 31 0 1
997 267 1 -0.82 -14.862031209235603 1.0495612513827588 -16.352345385497486 31 -1 1
692 165 2 0.41 -15.655187414148736 6.500757985630855 -14.024050578835304 31 0 1
999 267 2 0.41 -14.96588112037528 0.6130003295069795 -17.27269477498185 31 -1 1
998 267 2 0.41 -15.752533540056401 1.444517647304405 -16.070346819125444 31 -1 1
2268 690 2 0.41 -16.693587841183273 1.7515566100222273 -13.506129356153263 0 0 0
881 228 2 0.41 -13.787639507867146 4.5207804086266865 -14.70678271839527 9 1 1
2202 668 2 0.41 -12.145521753999844 -7.194070178810033 -5.334924944168117 0 1 0
1389 397 2 0.41 -12.15848809168205 -1.2355817424809468 -5.46643144610209 0 0 0
880 228 1 -0.82 -12.79924811755873 4.509711611381414 -14.534853704868922 9 1 1
3084 962 2 0.41 -18.345164182289665 1.9391953293258073 -0.06658185743011202 0 0 0
3563 1122 2 0.41 -13.345214086766852 1.5811987582598093 -15.622371812149431 27 0 1
3626 1143 2 0.41 -25.31875682736852 -1.779165905285839 -12.541165686453894 42 0 1
279 27 2 0.41 -22.303907631387858 8.496315927765712 -13.46258454618022 -3 0 0
422 75 2 0.41 -21.083156919452087 -6.161579841333479 -13.451339158408977 -1 0 0
2868 890 2 0.41 -18.23425159604598 -3.603652441240132 -0.1452100409580872 0 0 0
3560 1121 2 0.41 -21.18443820416896 -0.5033670960025525 -12.993193715570891 41 0 1
3041 948 2 0.41 -21.303857551555236 -3.737763563642451 -12.991545215824704 -1 0 0
2149 651 1 -0.82 -21.55117098561125 -8.400374461122556 -0.8864029162008364 0 0 0
489 97 2 0.41 -22.62906994500478 -2.4129490378646876 -10.625216702856832 -1 -1 0
488 97 2 0.41 -23.488804592218834 -3.0983065870635818 -11.854589466626173 -1 -1 0
487 97 1 -0.82 -23.502729043931772 -2.98796601791763 -10.81332283697489 -1 -1 0
361 55 1 -0.82 -22.844377366417408 -6.7406583941538 -7.465890636903151 -1 0 0
362 55 2 0.41 -22.536578909573567 -6.445795871379861 -8.453798269012212 -1 0 0
2991 931 2 0.41 -22.954129089070225 -8.256527708977734 -10.208399847679216 0 1 0
363 55 2 0.41 -22.083082538498893 -6.160072295046756 -6.986023823253511 -1 0 0
2900 901 2 0.41 -22.181983147958803 -0.6538287519644577 -6.811839550567107 0 0 0
3155 986 2 0.41 -23.17539307082441 -0.4735979947795883 -10.392780205583806 0 -1 0
2941 915 1 -0.82 -22.80897159149988 4.2643578280534395 -3.7134697397031253 0 -1 0
2247 683 2 0.41 -21.927571158669203 -4.092821759737854 -10.42633059476962 0 0 0
3021 941 2 0.41 -21.911000059994546 -1.7524201319791697 -8.695193033776494 0 0 0
3019 941 1 -0.82 -21.705499177767642 -1.6201729654968133 -9.701070136919387 0 0 0
457 87 1 -0.82 -21.578094542988904 -7.274354190729964 -9.88508465392025 -1 1 0
459 87 2 0.41 -21.459217005994464 -6.2633807806531365 -10.130837040272821 -1 1 0
3020 941 2 0.41 -21.244049190616312 -0.7209120694905158 -9.734037054604883 0 0 0
2245 683 1 -0.82 -21.156016140491136 -4.757231899712122 -10.179993990633543 0 0 0
2939 914 2 0.41 -21.3343513263148 -8.000959898034326 -7.275912934524543 0 0 0
458 87 2 0.41 -20.65586149590444 -7.682688255236915 -9.976393312791412 -1 1 0
1147 317 1 -0.82 -22.31835447011597 -4.556900806785657 -4.221093998147973 -1 0 0
603 135 2 0.41 -23.926623682615226 -8.296668847962426 -4.464524942581686 0 1 0
3205 1003 1 -0.82 -22.717950842423413 -7.223224513195695 -3.97111145927723 0 1 0
3093 965 2 0.41 -23.066947840997937 -8.264433112863223 -7.179617747936383 0 0 0
2911 905 1 -0.82 -19.15098685362184 -2.730063037847862 -13.39212499315591 -13 0 0
2913 905 2 0.41 -18.467189425975924 -2.1020617955530954 -12.85600047325405 -13 0 0
2938 914 1 -0.82 -20.475497711760923 -8.418029379355936 -6.973239866710546 0 0 0
2246 683 2 0.41 -20.441630305188227 -4.125751017623007 -9.758020851603893 0 0 0
3176 993 2 0.41 -20.018708944541103 -5.050856156973419 -11.48481462980276 0 0 0
3175 993 1 -0.82 -19.802188690967835 -5.203505467222104 -12.488965358096056 0 0 0
2080 628 1 -0.82 -19.27756487767723 -8.358289477716312 -12.965914236754331 0 0 0
3177 993 2 0.41 -19.413886110363123 -4.324718713056502 -12.811592121653277 0 0 0
1224 342 2 0.41 -19.08570069158608 -2.3052722827847827 -9.210766561978668 -1 0 0
1222 342 1 -0.82 -19.034540105381755 -3.3407986005641597 -9.26863244902162 -1 0 0
2081 628 2 0.41 -18.731683411795892 -7.513506791376326 -12.73389645399931 0 0 0
3049 951 1 -0.82 -18.770470389590717 -0.6821864871193251 -9.813181828935265 0 0 0
3025 943 1 -0.82 -18.39398867309794 -6.4399917091514975 -9.88042647531926 0 0 0
1145 316 2 0.41 -18.792265741493473 -8.051388301938475 -9.692456474197062 -1 0 0
3026 943 2 0.41 -18.334268205021594 -6.580776520990409 -10.94205289170145 0 0 0
1223 342 2 0.41 -18.055734275572604 -3.5772095737443887 -9.413434995381687 -1 0 0
3027 943 2 0.41 -17.762910399377198 -5.7905915122092 -9.416934153667942 0 0 0
2162 655 2 0.41 -17.37589674672023 -3.8690991137758726 -13.141762564740258 0 0 0
2233 679 1 -0.82 -17.14031156293143 -6.96057606906665 -12.344682979679881 0 0 0
553 119 1 -0.82 -17.194168505192586 -1.2873772535786818 -12.161665348199062 -1 0 0
2161 655 1 -0.82 -16.73109687246192 -4.434356456455432 -12.632190257055328 0 0 0
555 119 2 0.41 -16.982848105750946 -0.3262090672553999 -12.50643391511402 -1 0 0
2234 679 2 0.41 -16.989972097597374 -5.890251981806314 -12.459958166763341 0 0 0
554 119 2 0.41 -17.53511340740811 -1.2188336313154515 -11.217273090402314 -1 0 0
2235 679 2 0.41 -16.220460746961166 -7.317164062572549 -12.052713180367533 0 0 0
2163 655 2 0.41 -16.050871095357834 -3.7422839539576342 -12.304705742200788 0 0 0
1248 350 2 0.41 -15.775391454020156 -2.464342850161784 -10.249812829730498 -1 0 0
2937 913 2 0.41 -16.88421541527584 -7.38536309028706 -9.44867306690574 0 0 0
3014 939 2 0.41 -16.96282238811788 -4.860810565397578 -7.84782775696641 0 0 0
3013 939 1 -0.82 -16.675072389926076 -4.96133338309136 -8.843421427980246 0 0 0
2935 913 1 -0.82 -16.134229511436185 -8.006665901169786 -9.21670347786487 0 0 0
1246 350 1 -0.82 -16.095279820073543 -2.4533804896250455 -9.27264099905999 -1 0 0
3015 939 2 0.41 -16.117617101153407 -4.050345968751164 -8.995668077183163 0 0 0
2155 653 1 -0.82 -14.680220712786712 -3.02002002713816 -11.663817645437918 0 0 0
2936 913 2 0.41 -15.300903914856422 -7.5172525833484105 -8.916271633811025 0 0 0
1247 350 2 0.41 -15.492099434738533 -1.7474557184198085 -8.846151853771243 -1 0 0
455 86 2 0.41 -14.934576307930126 -6.07263990530941 -7.086835359644178 -1 0 0
2156 653 2 0.41 -14.51357470539555 -2.0514738212654597 -12.002103155435348 0 0 0
3038 947 2 0.41 -18.556783021469776 -3.382256705528837 -6.783976748102615 0 0 0
3051 951 2 0.41 -19.634518827368527 -0.054257827082562216 -9.73729520109616 0 0 0
2219 674 2 0.41 -15.115539283823498 8.468806243253338 -10.567205297117656 0 -1 0
3080 961 2 0.41 -22.577431250820972 -4.32113123856495 -6.837358773404922 0 -1 0
2232 678 2 0.41 -14.163718786228282 -6.078261068007821 -13.27060993786207 0 0 0
1003 269 1 -0.82 -22.318314502097977 1.0481385464487136 -4.234638602855952 41 0 1
2220 674 2 0.41 -14.306787082943144 -7.810549664506408 -11.763406658462497 0 0 0
3059 954 2 0.41 -13.600471873366201 -5.492196804374895 -8.656955996263047 0 1 0
3044 949 2 0.41 -13.755436435888846 -3.137808232401869 -9.239463271580354 0 1 0
2242 682 1 -0.82 -14.203902727989743 -0.39215800662227096 -12.299028058249387 0 0 0
2230 678 1 -0.82 -14.25484226848756 -5.965150924394947 -12.25626127463861 0 0 0
2968 924 1 -0.82 -13.97349717124 -0.906077784447457 -8.4670603587214 0 0 0
2231 678 2 0.41 -13.681836360897494 -5.196624043319008 -11.816453248937947 0 0 0
3043 949 1 -0.82 -13.414706871677934 -3.941301679386929 -8.763118984216378 0 1 0
3058 954 1 -0.82 -13.855738646566818 -6.491412471838348 -8.46092935982334 0 1 0
2157 653 2 0.41 -13.806957557358764 -3.54058517620581 -11.482389739995432 0 0 0
508 104 1 -0.82 -11.890259054282028 -5.825383645075423 -2.4461314624980908 0 0 0
2969 924 2 0.41 -13.34506479611711 -1.4976457794176818 -7.905232229853029 0 0 0
1675 493 1 -0.82 -12.728100963453429 -6.600886514989039 -14.538407155685395 38 -1 1
1295 366 2 0.41 -12.307014560518956 4.403232244447233 -5.218596353318526 0 -1 0
509 104 2 0.41 -11.78869613914382 -5.818573353216152 -3.4534963883524874 0 0 0
567 123 2 0.41 -24.536361234563422 5.847728039105844 -9.37656553368358 -1 -1 0
617 140 2 0.41 -23.267929858637387 -0.3801700974634379 -0.9353473544500304 0 0 0
1655 486 2 0.41 -12.455527980529128 -7.046850951224033 -12.057668783879901 37 0 1
2990 931 2 0.41 -24.414465635530263 -7.9307085010887555 -10.81759591770581 0 1 0
638 147 2 0.41 -21.866729271000445 6.935606647040638 -0.8734561496354267 0 -1 0
510 104 2 0.41 -11.206631704077232 -5.076219578639831 -2.065260136225458 0 0 0
221 8 2 0.41 -12.432723338460363 -7.255197849625374 -1.8785125259387456 -42 0 -1
1349 384 2 0.41 -19.35422538749267 5.402422543039554 -0.27258842851056286 0 0 0
1990 598 1 -0.82 -24.168156417909888 -5.539424640770768 -10.180131297109742 -1 0 0
3257 1020 2 0.41 -12.944229797256153 0.5960113248384946 -2.6146670884616228 1 0 0
1992 598 2 0.41 -24.43028747009008 -5.574839747258406 -9.083756500475355 -1 0 0
1640 481 2 0.41 -13.582216426489268 3.593462983055611 -0.7034130293382823 1 -1 0
1918 574 1 -0.82 -23.444199860841003 2.0189047395213553 -7.116696552174799 41 0 1
3218 1007 2 0.41 -22.147917018051693 3.0227863662149854 -13.217907529215097 0 0 0
3217 1007 1 -0.82 -22.362854725215904 2.0620541812674507 -13.195649164391389 0 0 0
566 123 2 0.41 -23.78430234552102 6.661983219226599 -10.703017530596561 -1 -1 0
1080 294 2 0.41 -23.832778025222286 3.3370619857351045 -13.301896633730536 -2 0 0
277 27 1 -0.82 -22.22875283964263 7.569185000953004 -13.105280177572158 -3 0 0
278 27 2 0.41 -22.615170507731452 7.646260360279067 -12.195720949026303 -3 0 0
2989 931 1 -0.82 -23.761107217378907 8.292931794776484 -10.660255412714644 0 0 0
1953 585 2 0.41 -22.926321874320706 3.341418796336052 -10.55475850626849 -1 0 0
1951 585 1 -0.82 -23.64059259486736 2.55732581179546 -10.68979395515248 -1 0 0
3525 1109 2 0.41 -25.251513942009847 1.234882859641008 -14.358139745901646 37 1 1
2151 651 2 0.41 -22.33347873361712 -7.825305917249807 -1.1482421735767367 0 0 0
529 111 1 -0.82 -21.74130666434524 4.09044501121882 -10.06034209272398 -1 0 0
531 111 2 0.41 -21.470480896612656 5.08678769891049 -10.26428641819507 -1 0 0
2283 695 2 0.41 -20.83971741037298 6.889350208219879 -11.455330018501694 0 0 0
1085 296 2 0.41 -21.94939924559908 1.4890786360917225 -10.731238798860055 -2 0 0
2281 695 1 -0.82 -21.065453438720766 6.569557098353517 -10.489833642032325 0 0 0
1084 296 1 -0.82 -21.214158696602105 0.8835012934573498 -10.243889519744762 -2 0 0
530 111 2 0.41 -20.864163381266653 3.6471763518321687 -9.767722363042719 -1 0 0
351 51 2 0.41 -20.716053181340104 1.4756781993195247 -6.660984101689852 -1 0 0
3275 1026 2 0.41 -20.857434598787076 3.95360498071471 -7.480005874408574 0 0 0
1920 574 2 0.41 -22.500475135482816 1.9533266541913061 -7.5308242554153075 41 0 1
220 8 1 -0.82 -12.76924681285862 -8.225499765539597 -1.7573006437910088 -42 0 -1
3031 945 1 -0.82 -21.04984956582074 6.000521981909465 -6.863369308991487 0 0 0
3207 1003 2 0.41 -22.568152623436482 -6.213939833281158 -4.195428809988039 0 1 0
3032 945 2 0.41 -21.905760681531177 5.957496708029915 -7.415035812633304 0 0 0
1078 294 1 -0.82 -24.7660963848321 3.6425699713339075 -13.63123517366266 -2 0 0
3050 951 2 0.41 -17.92777338660327 -0.12570760961394356 -9.462387797443677 0 0 0
3128 977 2 0.41 -18.90503042102737 -0.04978304405388556 -12.251352823180731 0 0 0
2274 692 2 0.41 -20.015241615174652 3.6300031797231664 -13.64804875224418 0 0 0
2272 692 1 -0.82 -19.304005941838263 2.9927445124961185 -13.317010827576649 0 0 0
1086 296 2 0.41 -20.322478861379537 1.3956279819874666 -10.165577150385516 -2 0 0
3274 1026 1 -0.82 -20.495981763773532 3.1308734905175655 -6.962956298006551 0 0 0
2282 695 2 0.41 -20.562916915804216 7.388360457836638 -10.009421483802958 0 0 0
3129 977 2 0.41 -19.54644566717964 1.3804806376150918 -12.96456012432255 0 0 0
3127 977 1 -0.82 -19.682747540913013 0.3508254808388127 -12.819433737231865 0 0 0
1146 316 2 0.41 -19.337285510872363 8.17325070445826 -8.29618702182248 -1 -1 0
420 74 2 0.41 -19.248309474812203 5.825781625087544 -10.089441091742364 -1 -1 0
2978 927 2 0.41 -19.482564193623183 7.087729901753159 -13.045207566593618 -1 0 0
2977 927 1 -0.82 -19.66847285934244 6.07785422397237 -12.874051565059428 -1 0 0
3104 969 2 0.41 -19.224813959309834 2.408527938866932 -8.400950553412969 0 -1 0
1144 316 1 -0.82 -19.140974784399464 8.055922793601601 -9.311748875200502 -1 -1 0
3103 969 1 -0.82 -18.999940473663997 2.2689390430905405 -9.383516887232176 0 -1 0
3105 969 2 0.41 -18.443758741748262 3.100284002338931 -9.735987955154156 0 -1 0
2979 927 2 0.41 -18.697513922343 5.718589195125748 -12.751261223899476 -1 0 0
2273 692 2 0.41 -18.6343685668647 3.6899699664131926 -12.916400608756081 0 0 0
418 74 1 -0.82 -18.65943996177414 5.02403199650537 -9.811804638107263 -1 -1 0
2310 704 2 0.41 -14.242687875615376 5.716902340394487 -13.261323103173662 0 -1 0
2271 691 2 0.41 -17.502010427133825 4.494410805960916 -11.098734774182876 0 0 0
383 62 2 0.41 -17.628939088091606 1.355686276630788 -7.606489517249008 -1 0 0
2243 682 2 0.41 -14.935722612632162 0.3013435818445913 -12.574209008564132 0 0 0
2218 674 1 -0.82 -14.766422392474972 8.341586848520128 -11.517615578557484 0 -1 0
1646 483 2 0.41 -17.507006485306256 7.790501185729065 -13.297435423658793 38 -1 1
1647 483 2 0.41 -16.313935863059022 7.690740693702272 -12.21204986484005 38 -1 1
2223 675 2 0.41 -16.534045303285772 7.319119938429667 -9.114961581582083 0 -1 0
503 102 2 0.41 -15.987209402599749 3.2954885176779225 -10.485836328164286 -1 0 0
2962 922 1 -0.82 -16.458937687944783 0.7332952908818058 -9.011079896503157 0 0 0
419 74 2 0.41 -17.876955611640092 5.531542046843301 -9.300126585278186 -1 -1 0
2270 691 2 0.41 -16.957714357025708 5.378441163451326 -12.369515148377705 0 0 0
2269 691 1 -0.82 -17.349619739633965 4.488272650974244 -12.153592406225052 0 0 0
1645 483 1 -0.82 -16.92656560238399 7.073033303692695 -12.837501089466144 38 -1 1
2266 690 1 -0.82 -16.616542801126897 1.300272582844645 -12.628878468597026 0 0 0
2267 690 2 0.41 -15.814877404531067 1.7688918403945912 -12.13626868016297 0 0 0
502 102 1 -0.82 -16.04252495741319 3.373140002837893 -9.469068770526032 -1 0 0
2964 922 2 0.41 -16.272407187203186 1.6749953870268364 -9.214490255579454 0 0 0
2221 675 1 -0.82 -16.486831372442914 6.332121539291675 -8.839174338561149 0 -1 0
504 102 2 0.41 -15.275827343026656 4.00130250667908 -9.050710170381352 -1 0 0
2963 922 2 0.41 -15.560390641763785 0.2694439673873905 -8.775991038051563 0 0 0
2222 675 2 0.41 -15.495932707942814 6.173544759868333 -8.885968466336 0 -1 0
2194 666 1 -0.82 -14.609433830909815 2.6863766861350324 -11.770829915888664 0 0 0
3276 1026 2 0.41 -19.631005809777577 3.548249486147345 -6.495958629068637 0 0 0
3256 1020 1 -0.82 -12.167700823323633 0.05280795164024177 -2.3796310538113694 1 0 0
2970 924 2 0.41 -13.671188447325111 0.10887469122315885 -8.527221559265358 0 0 0
404 69 2 0.41 -14.520376300425923 4.966439690038195 -7.4614450656878795 -1 0 0
2171 658 2 0.41 -14.172608136747138 2.5037229650494464 -8.695568929161853 0 0 0
2196 666 2 0.41 -14.34392717660691 3.6903661665782206 -11.841181232874314 0 0 0
2308 704 1 -0.82 -14.31453013330029 5.46861999025953 -12.28352502397 0 -1 0
405 69 2 0.41 -13.594830326090126 5.571641680080845 -8.686063692748087 -1 0 0
403 69 1 -0.82 -14.085126440676726 4.730157983761378 -8.374581819713809 -1 0 0
2170 658 1 -0.82 -13.493676886980765 1.744345122099654 -8.868158388582751 0 0 0
2309 704 2 0.41 -13.780947202679744 6.1455253974561135 -11.752485639832459 0 -1 0
2958 920 2 0.41 -13.336943647418396 7.33355678816007 -9.969240903676754 0 -1 0
2956 920 1 -0.82 -13.521803683961872 7.234836763418844 -8.94437253828076 0 -1 0
2244 682 2 0.41 -13.325643896142662 0.14569662007856365 -12.005547641171532 0 0 0
2195 666 2 0.41 -13.777430313567667 2.0493156067811036 -11.820398687169709 0 0 0
2265 689 2 0.41 -12.706037673513034 1.1210235990828146 -10.405305276990806 0 0 0
408 70 2 0.41 -13.117039177217304 7.918746303229492 -15.285751264470225 -3 -1 0
2051 618 2 0.41 -14.281155521820999 6.935175474182564 -3.875073727931321 0 -1 0
2239 681 1 -0.82 -12.265973567652575 -4.613237782269878 -11.088231707914643 0 0 0
3586 1130 1 -0.82 -12.66386640029798 -1.0626624026013225 -14.47058160099358 23 -1 1
2103 635 2 0.41 -22.15111949774241 3.9984108477070315 -0.8771712502793072 0 -1 0
3354 1052 2 0.41 -23.379206666176906 -6.0439088468832525 -1.178911034899329 1 1 0
2179 661 1 -0.82 -13.137679604956748 1.1509101271251705 -5.130678000011466 0 0 0
630 144 2 0.41 -19.08567894980258 -5.968529001557295 -0.19196739017149156 0 1 0
1331 378 2 0.41 -10.96358955001439 -0.672531021219922 -3.5663754810969657 0 0 0
2236 680 1 -0.82 -16.58012073549523 -0.3214800108495055 -0.08661088363828284 0 0 0
2834 879 2 0.41 -13.274281839592648 7.604265804513437 -5.272770648486073 0 0 0
3081 961 2 0.41 -23.030658039573186 -2.664865918951799 -7.311435655094826 0 -1 0
437 80 2 0.41 -23.584526997970794 2.2064627612959793 -1.3240253675236637 0 0 0
2903 902 2 0.41 -14.62686581889301 0.35118207974728577 -5.650178440242605 0 0 0
2942 915 2 0.41 -22.51723882280264 5.193145415722817 -4.202912374101301 0 -1 0
3206 1003 2 0.41 -21.888497082230014 -7.793264321524652 -3.6719791365094565 0 1 0
1149 317 2 0.41 -21.64195598315419 -4.3387252332646735 -3.5112057658275475 -1 0 0
1365 389 2 0.41 -21.23158010696499 -2.6906435529488357 -1.9726420380234195 0 0 0
549 117 2 0.41 -21.344619511634402 -5.124382030718321 -5.539554018778221 -1 1 0
1364 389 2 0.41 -20.633874145452804 -2.275160787113717 -0.509352406983556 0 0 0
547 117 1 -0.82 -20.971014364821965 -5.296294059037455 -6.493047571387027 -1 1 0
639 147 2 0.41 -20.94229582689237 5.710725975994823 -0.4797209565343259 0 -1 0
2957 920 2 0.41 -12.86471338691206 7.879628258864683 -8.511331517249378 0 -1 0
2172 658 2 0.41 -12.618211224379325 2.243456252869514 -8.500473553392807 0 0 0
2150 651 2 0.41 -20.93665231899897 -7.6606766076262 -0.5269524238152492 0 0 0
3376 1060 1 -0.82 -22.21212422701931 -5.175860514781471 -0.4130768928177382 1 0 0
2940 914 2 0.41 -19.798203007898188 -7.645832404150748 -6.809792484857411 0 0 0
548 117 2 0.41 -20.051910642178758 -4.813405176394989 -6.503543608607213 -1 1 0
1151 318 2 0.41 -19.921604255244503 -2.2350183586742354 -3.5440768630751265 0 0 0
1150 318 1 -0.82 -20.162650889665727 -3.1896992771347206 -3.234568680275821 0 0 0
3000 934 2 0.41 -19.81014354336994 -7.968159399276855 -3.396965018810814 0 1 0
451 85 1 -0.82 -19.716176471178095 -0.6995701725319385 -3.707037599759161 -1 0 0
3007 937 1 -0.82 -19.689131955557702 -6.408098049996019 -3.8625118471144724 0 0 0
3009 937 2 0.41 -19.45138993210421 -6.414312726767439 -4.889775983235085 0 0 0
3008 937 2 0.41 -19.069510327638614 -5.705656017040942 -3.4096918830635623 0 0 0
2866 890 1 -0.82 -19.049223490205847 -4.312994950728592 -0.37270861443310466 0 0 0
1152 318 2 0.41 -19.33758282190304 -3.8043539388780117 -3.1981085349974876 0 0 0
452 85 2 0.41 -18.90453426750158 -0.16652689832237932 -3.394136083675825 -1 0 0
2255 686 2 0.41 -18.863966565059762 -1.2702988346289787 -5.145070817190232 0 0 0
2254 686 1 -0.82 -18.4871114017141 -1.3719113511083352 -6.067506062595129 0 0 0
2197 667 1 -0.82 -18.3842351830039 -6.909788176955891 -6.195253699085217 0 1 0
557 120 2 0.41 -17.694739692278475 -7.122233750520694 -2.9444185484183265 0 1 0
2256 686 2 0.41 -18.141617298209468 -0.40108545904491244 -6.240578005263179 0 0 0
2199 667 2 0.41 -18.090275964887603 -5.975524933516634 -6.442345295644905 0 1 0
3037 947 1 -0.82 -18.026694024166055 -4.247439133073826 -6.537472853594252 0 0 0
348 50 2 0.41 -17.94446452074706 -4.844042860434307 -1.6765212722657097 -1 0 0
346 50 1 -0.82 -17.806389202321235 -4.994481219105754 -2.696874480716808 -1 0 0
2107 637 1 -0.82 -14.971363024038599 -6.56851132054673 -2.4417904123559886 0 0 0
2186 663 2 0.41 -14.89963935345824 -3.22311970514109 -5.276142079834729 0 0 0
454 86 1 -0.82 -15.234708120019082 -6.121017273635557 -6.077858999207001 -1 0 0
206 3 2 0.41 -15.744301671334302 -7.623670562582474 -5.854899106200206 -1 0 0
3067 957 1 -0.82 -14.588240476814317 -3.899740873542095 -2.8304325817175133 0 1 0
3068 957 2 0.41 -15.400610691889609 -3.3182537755208044 -2.937577634573792 0 1 0
2187 663 2 0.41 -15.705861175777866 -1.8376579086903 -5.878345436703755 0 0 0
2185 663 1 -0.82 -15.81763477030249 -2.8475338942615362 -5.644018893930715 0 0 0
558 120 2 0.41 -16.235659162044577 -7.6074911378608 -2.90545204748695 0 1 0
2765 856 2 0.41 -17.035370869532066 -1.4570532097690059 -2.9949063085825713 42 0 1
2766 856 2 0.41 -16.663428869905367 -2.5513879186925372 -4.265111294060906 42 0 1
556 120 1 -0.82 -17.18189519695671 -7.936953487411385 -3.0934335330816687 0 1 0
2764 856 1 -0.82 -17.01380034725791 -2.4380277973920323 -3.2999656798872863 42 0 1
347 50 2 0.41 -17.58351491128777 -4.044931974476205 -3.1044750406187944 -1 0 0
3039 947 2 0.41 -17.096555441443105 -3.7713316092061193 -6.207697766380392 0 0 0
2198 667 2 0.41 -17.541669440486185 -7.452419933031459 -6.136975027886949 0 1 0
582 128 2 0.41 -16.011075922059096 -6.120661529661682 -1.0488906299688523 0 0 0
2902 902 1 -0.82 -15.438065936548385 -0.21011449027611917 -5.94784966691584 0 0 0
2108 637 2 0.41 -14.87926180232529 -5.608530907834684 -2.750113761104309 0 0 0
2180 661 2 0.41 -13.001981806236977 2.190429947581036 -5.360795315289625 0 0 0
207 3 2 0.41 -16.13230304659244 8.276692572649575 -4.663607328649352 -1 -1 0
350 51 2 0.41 -20.071064569295068 -0.09248565672206333 -6.365519659728863 -1 0 0
3377 1060 2 0.41 -21.907509423257252 -4.179467574718054 -0.5454453382520725 1 0 0
565 123 1 -0.82 -24.15228697311226 5.75081004821128 -10.319371042341174 -1 -1 0
3079 961 1 -0.82 -23.329168321892155 -3.643758812752183 -7.0788372069127306 0 -1 0
612 138 2 0.41 -11.25588391889115 6.315533535494849 -1.9808760347792251 0 0 0
2943 915 2 0.41 -22.240696343720327 4.266278316610391 -2.837536988145583 0 -1 0
2122 642 1 -0.82 -22.13459985501875 6.703923258758492 -4.546691535783182 0 0 0
1296 366 2 0.41 -12.690124903098917 3.6994615022490596 -6.707196926859087 0 -1 0
3156 986 2 0.41 -23.892176159554545 1.003361137192993 -10.386941751713662 0 -1 0
1676 493 2 0.41 -12.706390590515582 -5.557882844212809 -14.63349204636695 38 -1 1
2835 879 2 0.41 -12.12857836937274 6.463819551411458 -5.40458390450557 0 0 0
3060 954 2 0.41 -12.933929447242598 -6.973745752037525 -8.319202076382991 0 1 0
768 190 2 0.41 -12.26280687636059 -1.635163969665026 -2.231597195302811 0 0 0
2200 668 1 -0.82 -12.969436023611927 -7.664735817230041 -5.6600287975207095 0 1 0
2060 621 2 0.41 -25.564404574338326 -8.07512150658485 -14.568644814029785 -3 1 0
1388 397 2 0.41 -13.695901139969104 -1.582244343774943 -6.198898760553684 0 0 0
456 86 2 0.41 -14.433938192877275 -5.657399877318943 -5.532976617444707 -1 0 0
1324 376 1 -0.82 -12.5360034690312 3.1628874624050773 -1.9256651961250562 0 0 0
611 138 2 0.41 -12.77084761793435 6.608954934150905 -2.1134468593628952 0 0 0
2109 637 2 0.41 -14.160285545774466 -6.905921391806436 -1.941216901200633 0 0 0
2083 629 1 -0.82 -13.310891358355649 -4.525196190473679 -5.0910341433301 0 0 0
3069 957 2 0.41 -13.806652465283705 -3.38826256366643 -2.363987860695641 0 1 0
766 190 1 -0.82 -12.566531250108971 -2.5646183225058072 -1.9105872437194868 0 0 0
222 8 2 0.41 -13.226728528088634 -8.31648619773391 -0.8223223520233383 -42 0 -1
767 190 2 0.41 -12.973263129889595 -2.3574222536807428 -0.9870481724287572 0 0 0
2084 629 2 0.41 -13.497188699733968 -4.420130041696105 -4.036197040559134 0 0 0
2201 668 2 0.41 -13.81692118250375 -7.067457714788803 -5.673866126646372 0 1 0
1387 397 1 -0.82 -12.907511656262622 -1.945210314270427 -5.6530797381607965 0 0 0
299 34 2 0.41 -25.076179055856507 -4.407979461616041 -14.651293075971454 -2 0 0
1321 375 1 -0.82 -21.966757815310945 0.4387824254037582 -0.47917497768887074 0 1 0
2181 661 2 0.41 -12.178946722657018 0.7800649782327387 -5.171283849003228 0 0 0
3285 1029 2 0.41 -12.28760516140847 -1.3748523656112352 -11.852628205733959 0 0 0
2144 649 2 0.41 -12.178944879186322 -8.270867404308142 -7.034993658669098 0 0 0
1284 362 2 0.41 -16.99905627009168 6.072845424310401 -0.25186263820768673 0 -1 0
1148 317 2 0.41 -22.916922207286355 -3.7243668246698087 -4.172460455705906 -1 0 0
1322 375 2 0.41 -21.495873498615683 1.2927482848392664 -0.8742454633447565 0 1 0
2085 629 2 0.41 -12.96109225871567 -3.5774906368335193 -5.407871400716449 0 0 0
2101 635 1 -0.82 -21.621958579817946 3.1363836823827764 -0.8803253154333213 0 -1 0
610 138 1 -0.82 -12.145713151079672 5.809200374120609 -2.1836171052534183 0 0 0
2123 642 2 0.41 -21.526167013743326 6.372907984838561 -5.25393815516356 0 0 0